s -t 1.000000000 -Hs 0 -Hd -2 -Ni 0 -Nx 50.00 -Ny 400.00 -Nz 0.00 -Ne -1.000000 -Nl AGT -Nw --- -Ma 0 -Md 0 -Ms 0 -Mt tcp -Is 0.0 -Id 2.0 -It tcp -Il 40 -If 0 -Ii 0 -Iv 32 -Pn tcp -Ps 0 -Pa 0 -Pf 0 -Po 0 
r -t 1.000000000 -Hs 0 -Hd -2 -Ni 0 -Nx 50.00 -Ny 400.00 -Nz 0.00 -Ne -1.000000 -Nl RTR -Nw --- -Ma 0 -Md 0 -Ms 0 -Mt tcp -Is 0.0 -Id 2.0 -It tcp -Il 40 -If 0 -Ii 0 -Iv 32 -Pn tcp -Ps 0 -Pa 0 -Pf 0 -Po 0 
s -t 1.000000000 -Hs 0 -Hd -2 -Ni 0 -Nx 50.00 -Ny 400.00 -Nz 0.00 -Ne -1.000000 -Nl RTR -Nw --- -Ma 0 -Md 0 -Ms 0 -Mt AODV -Is 0.255 -Id -1.255 -It AODV -Il 48 -If 0 -Ii 0 -Iv 30 -P aodv -Pt 0x2 -Ph 1 -Pb 1 -Pd 2 -Pds 0 -Ps 0 -Pss 4 -Pc REQUEST 
s -t 1.000115000 -Hs 0 -Hd -2 -Ni 0 -Nx 50.00 -Ny 400.00 -Nz 0.00 -Ne -1.000000 -Nl MAC -Nw --- -Ma 0 -Md ffffffff -Ms 0 -Mt AODV -Is 0.255 -Id -1.255 -It AODV -Il 100 -If 0 -Ii 0 -Iv 30 -P aodv -Pt 0x2 -Ph 1 -Pb 1 -Pd 2 -Pds 0 -Ps 0 -Pss 4 -Pc REQUEST 
r -t 1.000915667 -Hs 1 -Hd -2 -Ni 1 -Nx 250.00 -Ny 400.00 -Nz 0.00 -Ne -1.000000 -Nl MAC -Nw --- -Ma 0 -Md ffffffff -Ms 0 -Mt AODV -Is 0.255 -Id -1.255 -It AODV -Il 48 -If 0 -Ii 0 -Iv 30 -P aodv -Pt 0x2 -Ph 1 -Pb 1 -Pd 2 -Pds 0 -Ps 0 -Pss 4 -Pc REQUEST 
r -t 1.000940667 -Hs 1 -Hd -2 -Ni 1 -Nx 250.00 -Ny 400.00 -Nz 0.00 -Ne -1.000000 -Nl RTR -Nw --- -Ma 0 -Md ffffffff -Ms 0 -Mt AODV -Is 0.255 -Id -1.255 -It AODV -Il 48 -If 0 -Ii 0 -Iv 30 -P aodv -Pt 0x2 -Ph 1 -Pb 1 -Pd 2 -Pds 0 -Ps 0 -Pss 4 -Pc REQUEST 
s -t 1.001821893 -Hs 1 -Hd -2 -Ni 1 -Nx 250.00 -Ny 400.00 -Nz 0.00 -Ne -1.000000 -Nl RTR -Nw --- -Ma 0 -Md ffffffff -Ms 0 -Mt AODV -Is 1.255 -Id -1.255 -It AODV -Il 48 -If 0 -Ii 0 -Iv 29 -P aodv -Pt 0x2 -Ph 2 -Pb 1 -Pd 2 -Pds 0 -Ps 0 -Pss 4 -Pc REQUEST 
s -t 1.002216893 -Hs 1 -Hd -2 -Ni 1 -Nx 250.00 -Ny 400.00 -Nz 0.00 -Ne -1.000000 -Nl MAC -Nw --- -Ma 0 -Md ffffffff -Ms 1 -Mt AODV -Is 1.255 -Id -1.255 -It AODV -Il 100 -If 0 -Ii 0 -Iv 29 -P aodv -Pt 0x2 -Ph 2 -Pb 1 -Pd 2 -Pds 0 -Ps 0 -Pss 4 -Pc REQUEST 
r -t 1.003017560 -Hs 0 -Hd -2 -Ni 0 -Nx 50.00 -Ny 400.00 -Nz 0.00 -Ne -1.000000 -Nl MAC -Nw --- -Ma 0 -Md ffffffff -Ms 1 -Mt AODV -Is 1.255 -Id -1.255 -It AODV -Il 48 -If 0 -Ii 0 -Iv 29 -P aodv -Pt 0x2 -Ph 2 -Pb 1 -Pd 2 -Pds 0 -Ps 0 -Pss 4 -Pc REQUEST 
r -t 1.003017560 -Hs 2 -Hd -2 -Ni 2 -Nx 450.00 -Ny 400.00 -Nz 0.00 -Ne -1.000000 -Nl MAC -Nw --- -Ma 0 -Md ffffffff -Ms 1 -Mt AODV -Is 1.255 -Id -1.255 -It AODV -Il 48 -If 0 -Ii 0 -Iv 29 -P aodv -Pt 0x2 -Ph 2 -Pb 1 -Pd 2 -Pds 0 -Ps 0 -Pss 4 -Pc REQUEST 
r -t 1.003042560 -Hs 0 -Hd -2 -Ni 0 -Nx 50.00 -Ny 400.00 -Nz 0.00 -Ne -1.000000 -Nl RTR -Nw --- -Ma 0 -Md ffffffff -Ms 1 -Mt AODV -Is 1.255 -Id -1.255 -It AODV -Il 48 -If 0 -Ii 0 -Iv 29 -P aodv -Pt 0x2 -Ph 2 -Pb 1 -Pd 2 -Pds 0 -Ps 0 -Pss 4 -Pc REQUEST 
r -t 1.003042560 -Hs 2 -Hd -2 -Ni 2 -Nx 450.00 -Ny 400.00 -Nz 0.00 -Ne -1.000000 -Nl RTR -Nw --- -Ma 0 -Md ffffffff -Ms 1 -Mt AODV -Is 1.255 -Id -1.255 -It AODV -Il 48 -If 0 -Ii 0 -Iv 29 -P aodv -Pt 0x2 -Ph 2 -Pb 1 -Pd 2 -Pds 0 -Ps 0 -Pss 4 -Pc REQUEST 
s -t 1.003042560 -Hs 2 -Hd 1 -Ni 2 -Nx 450.00 -Ny 400.00 -Nz 0.00 -Ne -1.000000 -Nl RTR -Nw --- -Ma 0 -Md 0 -Ms 0 -Mt AODV -Is 2.255 -Id 0.255 -It AODV -Il 44 -If 0 -Ii 0 -Iv 30 -P aodv -Pt 0x4 -Ph 1 -Pd 2 -Pds 4 -Pl 10.000000 -Pc REPLY 
s -t 1.003257560 -Hs 2 -Hd -2 -Ni 2 -Nx 450.00 -Ny 400.00 -Nz 0.00 -Ne -1.000000 -Nl MAC -Nw --- -Ma 0 -Md ffffffff -Ms 2 -Mt ARP -P arp -Po REQUEST -Pms 2 -Ps 2 -Pmd 0 -Pd 1 
r -t 1.003898227 -Hs 1 -Hd -2 -Ni 1 -Nx 250.00 -Ny 400.00 -Nz 0.00 -Ne -1.000000 -Nl MAC -Nw --- -Ma 0 -Md ffffffff -Ms 2 -Mt ARP -P arp -Po REQUEST -Pms 2 -Ps 2 -Pmd 0 -Pd 1 
s -t 1.004193227 -Hs 1 -Hd -2 -Ni 1 -Nx 250.00 -Ny 400.00 -Nz 0.00 -Ne -1.000000 -Nl MAC -Nw --- -Ma 1278 -Md 2 -Ms 1 -Mt RTS 
r -t 1.004545893 -Hs 2 -Hd -2 -Ni 2 -Nx 450.00 -Ny 400.00 -Nz 0.00 -Ne -1.000000 -Nl MAC -Nw --- -Ma 1278 -Md 2 -Ms 1 -Mt RTS 
s -t 1.004555893 -Hs 2 -Hd -2 -Ni 2 -Nx 450.00 -Ny 400.00 -Nz 0.00 -Ne -1.000000 -Nl MAC -Nw --- -Ma 964 -Md 1 -Ms 0 -Mt CTS 
r -t 1.004860560 -Hs 1 -Hd -2 -Ni 1 -Nx 250.00 -Ny 400.00 -Nz 0.00 -Ne -1.000000 -Nl MAC -Nw --- -Ma 964 -Md 1 -Ms 0 -Mt CTS 
s -t 1.004870560 -Hs 1 -Hd -2 -Ni 1 -Nx 250.00 -Ny 400.00 -Nz 0.00 -Ne -1.000000 -Nl MAC -Nw --- -Ma 314 -Md 2 -Ms 1 -Mt ARP -P arp -Po REPLY -Pms 1 -Ps 1 -Pmd 2 -Pd 2 
r -t 1.005511227 -Hs 2 -Hd -2 -Ni 2 -Nx 450.00 -Ny 400.00 -Nz 0.00 -Ne -1.000000 -Nl MAC -Nw --- -Ma 314 -Md 2 -Ms 1 -Mt ARP -P arp -Po REPLY -Pms 1 -Ps 1 -Pmd 2 -Pd 2 
s -t 1.005521227 -Hs 2 -Hd -2 -Ni 2 -Nx 450.00 -Ny 400.00 -Nz 0.00 -Ne -1.000000 -Nl MAC -Nw --- -Ma 0 -Md 1 -Ms 0 -Mt ACK 
r -t 1.005825893 -Hs 1 -Hd -2 -Ni 1 -Nx 250.00 -Ny 400.00 -Nz 0.00 -Ne -1.000000 -Nl MAC -Nw --- -Ma 0 -Md 1 -Ms 0 -Mt ACK 
s -t 1.006235227 -Hs 2 -Hd -2 -Ni 2 -Nx 450.00 -Ny 400.00 -Nz 0.00 -Ne -1.000000 -Nl MAC -Nw --- -Ma 1406 -Md 1 -Ms 2 -Mt RTS 
r -t 1.006587893 -Hs 1 -Hd -2 -Ni 1 -Nx 250.00 -Ny 400.00 -Nz 0.00 -Ne -1.000000 -Nl MAC -Nw --- -Ma 1406 -Md 1 -Ms 2 -Mt RTS 
s -t 1.006597893 -Hs 1 -Hd -2 -Ni 1 -Nx 250.00 -Ny 400.00 -Nz 0.00 -Ne -1.000000 -Nl MAC -Nw --- -Ma 1092 -Md 2 -Ms 0 -Mt CTS 
r -t 1.006902560 -Hs 2 -Hd -2 -Ni 2 -Nx 450.00 -Ny 400.00 -Nz 0.00 -Ne -1.000000 -Nl MAC -Nw --- -Ma 1092 -Md 2 -Ms 0 -Mt CTS 
s -t 1.006912560 -Hs 2 -Hd 1 -Ni 2 -Nx 450.00 -Ny 400.00 -Nz 0.00 -Ne -1.000000 -Nl MAC -Nw --- -Ma 314 -Md 1 -Ms 2 -Mt AODV -Is 2.255 -Id 0.255 -It AODV -Il 96 -If 0 -Ii 0 -Iv 30 -P aodv -Pt 0x4 -Ph 1 -Pd 2 -Pds 4 -Pl 10.000000 -Pc REPLY 
r -t 1.007681227 -Hs 1 -Hd 1 -Ni 1 -Nx 250.00 -Ny 400.00 -Nz 0.00 -Ne -1.000000 -Nl MAC -Nw --- -Ma 314 -Md 1 -Ms 2 -Mt AODV -Is 2.255 -Id 0.255 -It AODV -Il 44 -If 0 -Ii 0 -Iv 30 -P aodv -Pt 0x4 -Ph 1 -Pd 2 -Pds 4 -Pl 10.000000 -Pc REPLY 
s -t 1.007691227 -Hs 1 -Hd -2 -Ni 1 -Nx 250.00 -Ny 400.00 -Nz 0.00 -Ne -1.000000 -Nl MAC -Nw --- -Ma 0 -Md 2 -Ms 0 -Mt ACK 
r -t 1.007706227 -Hs 1 -Hd 1 -Ni 1 -Nx 250.00 -Ny 400.00 -Nz 0.00 -Ne -1.000000 -Nl RTR -Nw --- -Ma 314 -Md 1 -Ms 2 -Mt AODV -Is 2.255 -Id 0.255 -It AODV -Il 44 -If 0 -Ii 0 -Iv 30 -P aodv -Pt 0x4 -Ph 1 -Pd 2 -Pds 4 -Pl 10.000000 -Pc REPLY 
f -t 1.007706227 -Hs 1 -Hd 0 -Ni 1 -Nx 250.00 -Ny 400.00 -Nz 0.00 -Ne -1.000000 -Nl RTR -Nw --- -Ma 314 -Md 1 -Ms 2 -Mt AODV -Is 2.255 -Id 0.255 -It AODV -Il 44 -If 0 -Ii 0 -Iv 29 -P aodv -Pt 0x4 -Ph 2 -Pd 2 -Pds 4 -Pl 10.000000 -Pc REPLY 
r -t 1.007995893 -Hs 2 -Hd -2 -Ni 2 -Nx 450.00 -Ny 400.00 -Nz 0.00 -Ne -1.000000 -Nl MAC -Nw --- -Ma 0 -Md 2 -Ms 0 -Mt ACK 
s -t 1.008285227 -Hs 1 -Hd -2 -Ni 1 -Nx 250.00 -Ny 400.00 -Nz 0.00 -Ne -1.000000 -Nl MAC -Nw --- -Ma 0 -Md ffffffff -Ms 1 -Mt ARP -P arp -Po REQUEST -Pms 1 -Ps 1 -Pmd 0 -Pd 0 
r -t 1.008925893 -Hs 0 -Hd -2 -Ni 0 -Nx 50.00 -Ny 400.00 -Nz 0.00 -Ne -1.000000 -Nl MAC -Nw --- -Ma 0 -Md ffffffff -Ms 1 -Mt ARP -P arp -Po REQUEST -Pms 1 -Ps 1 -Pmd 0 -Pd 0 
r -t 1.008925893 -Hs 2 -Hd -2 -Ni 2 -Nx 450.00 -Ny 400.00 -Nz 0.00 -Ne -1.000000 -Nl MAC -Nw --- -Ma 0 -Md ffffffff -Ms 1 -Mt ARP -P arp -Po REQUEST -Pms 1 -Ps 1 -Pmd 0 -Pd 0 
s -t 1.009140893 -Hs 0 -Hd -2 -Ni 0 -Nx 50.00 -Ny 400.00 -Nz 0.00 -Ne -1.000000 -Nl MAC -Nw --- -Ma 1278 -Md 1 -Ms 0 -Mt RTS 
r -t 1.009493560 -Hs 1 -Hd -2 -Ni 1 -Nx 250.00 -Ny 400.00 -Nz 0.00 -Ne -1.000000 -Nl MAC -Nw --- -Ma 1278 -Md 1 -Ms 0 -Mt RTS 
s -t 1.009503560 -Hs 1 -Hd -2 -Ni 1 -Nx 250.00 -Ny 400.00 -Nz 0.00 -Ne -1.000000 -Nl MAC -Nw --- -Ma 964 -Md 0 -Ms 0 -Mt CTS 
r -t 1.009808227 -Hs 0 -Hd -2 -Ni 0 -Nx 50.00 -Ny 400.00 -Nz 0.00 -Ne -1.000000 -Nl MAC -Nw --- -Ma 964 -Md 0 -Ms 0 -Mt CTS 
s -t 1.009818227 -Hs 0 -Hd -2 -Ni 0 -Nx 50.00 -Ny 400.00 -Nz 0.00 -Ne -1.000000 -Nl MAC -Nw --- -Ma 314 -Md 1 -Ms 0 -Mt ARP -P arp -Po REPLY -Pms 0 -Ps 0 -Pmd 1 -Pd 1 
r -t 1.010458893 -Hs 1 -Hd -2 -Ni 1 -Nx 250.00 -Ny 400.00 -Nz 0.00 -Ne -1.000000 -Nl MAC -Nw --- -Ma 314 -Md 1 -Ms 0 -Mt ARP -P arp -Po REPLY -Pms 0 -Ps 0 -Pmd 1 -Pd 1 
s -t 1.010468893 -Hs 1 -Hd -2 -Ni 1 -Nx 250.00 -Ny 400.00 -Nz 0.00 -Ne -1.000000 -Nl MAC -Nw --- -Ma 0 -Md 0 -Ms 0 -Mt ACK 
r -t 1.010773560 -Hs 0 -Hd -2 -Ni 0 -Nx 50.00 -Ny 400.00 -Nz 0.00 -Ne -1.000000 -Nl MAC -Nw --- -Ma 0 -Md 0 -Ms 0 -Mt ACK 
s -t 1.011202893 -Hs 1 -Hd -2 -Ni 1 -Nx 250.00 -Ny 400.00 -Nz 0.00 -Ne -1.000000 -Nl MAC -Nw --- -Ma 1406 -Md 0 -Ms 1 -Mt RTS 
r -t 1.011555560 -Hs 0 -Hd -2 -Ni 0 -Nx 50.00 -Ny 400.00 -Nz 0.00 -Ne -1.000000 -Nl MAC -Nw --- -Ma 1406 -Md 0 -Ms 1 -Mt RTS 
s -t 1.011565560 -Hs 0 -Hd -2 -Ni 0 -Nx 50.00 -Ny 400.00 -Nz 0.00 -Ne -1.000000 -Nl MAC -Nw --- -Ma 1092 -Md 1 -Ms 0 -Mt CTS 
r -t 1.011870227 -Hs 1 -Hd -2 -Ni 1 -Nx 250.00 -Ny 400.00 -Nz 0.00 -Ne -1.000000 -Nl MAC -Nw --- -Ma 1092 -Md 1 -Ms 0 -Mt CTS 
s -t 1.011880227 -Hs 1 -Hd 0 -Ni 1 -Nx 250.00 -Ny 400.00 -Nz 0.00 -Ne -1.000000 -Nl MAC -Nw --- -Ma 314 -Md 0 -Ms 1 -Mt AODV -Is 2.255 -Id 0.255 -It AODV -Il 96 -If 0 -Ii 0 -Iv 29 -P aodv -Pt 0x4 -Ph 2 -Pd 2 -Pds 4 -Pl 10.000000 -Pc REPLY 
r -t 1.012648893 -Hs 0 -Hd 0 -Ni 0 -Nx 50.00 -Ny 400.00 -Nz 0.00 -Ne -1.000000 -Nl MAC -Nw --- -Ma 314 -Md 0 -Ms 1 -Mt AODV -Is 2.255 -Id 0.255 -It AODV -Il 44 -If 0 -Ii 0 -Iv 29 -P aodv -Pt 0x4 -Ph 2 -Pd 2 -Pds 4 -Pl 10.000000 -Pc REPLY 
s -t 1.012658893 -Hs 0 -Hd -2 -Ni 0 -Nx 50.00 -Ny 400.00 -Nz 0.00 -Ne -1.000000 -Nl MAC -Nw --- -Ma 0 -Md 1 -Ms 0 -Mt ACK 
r -t 1.012673893 -Hs 0 -Hd 0 -Ni 0 -Nx 50.00 -Ny 400.00 -Nz 0.00 -Ne -1.000000 -Nl RTR -Nw --- -Ma 314 -Md 0 -Ms 1 -Mt AODV -Is 2.255 -Id 0.255 -It AODV -Il 44 -If 0 -Ii 0 -Iv 29 -P aodv -Pt 0x4 -Ph 2 -Pd 2 -Pds 4 -Pl 10.000000 -Pc REPLY 
s -t 1.012673893 -Hs 0 -Hd 1 -Ni 0 -Nx 50.00 -Ny 400.00 -Nz 0.00 -Ne -1.000000 -Nl RTR -Nw --- -Ma 0 -Md 0 -Ms 0 -Mt tcp -Is 0.0 -Id 2.0 -It tcp -Il 60 -If 0 -Ii 0 -Iv 30 -Pn tcp -Ps 0 -Pa 0 -Pf 0 -Po 0 
r -t 1.012963560 -Hs 1 -Hd -2 -Ni 1 -Nx 250.00 -Ny 400.00 -Nz 0.00 -Ne -1.000000 -Nl MAC -Nw --- -Ma 0 -Md 1 -Ms 0 -Mt ACK 
s -t 1.013252893 -Hs 0 -Hd -2 -Ni 0 -Nx 50.00 -Ny 400.00 -Nz 0.00 -Ne -1.000000 -Nl MAC -Nw --- -Ma 1534 -Md 1 -Ms 0 -Mt RTS 
r -t 1.013605560 -Hs 1 -Hd -2 -Ni 1 -Nx 250.00 -Ny 400.00 -Nz 0.00 -Ne -1.000000 -Nl MAC -Nw --- -Ma 1534 -Md 1 -Ms 0 -Mt RTS 
s -t 1.013615560 -Hs 1 -Hd -2 -Ni 1 -Nx 250.00 -Ny 400.00 -Nz 0.00 -Ne -1.000000 -Nl MAC -Nw --- -Ma 1220 -Md 0 -Ms 0 -Mt CTS 
r -t 1.013920227 -Hs 0 -Hd -2 -Ni 0 -Nx 50.00 -Ny 400.00 -Nz 0.00 -Ne -1.000000 -Nl MAC -Nw --- -Ma 1220 -Md 0 -Ms 0 -Mt CTS 
s -t 1.013930227 -Hs 0 -Hd 1 -Ni 0 -Nx 50.00 -Ny 400.00 -Nz 0.00 -Ne -1.000000 -Nl MAC -Nw --- -Ma 314 -Md 1 -Ms 0 -Mt tcp -Is 0.0 -Id 2.0 -It tcp -Il 112 -If 0 -Ii 0 -Iv 30 -Pn tcp -Ps 0 -Pa 0 -Pf 0 -Po 0 
r -t 1.014826893 -Hs 1 -Hd 1 -Ni 1 -Nx 250.00 -Ny 400.00 -Nz 0.00 -Ne -1.000000 -Nl MAC -Nw --- -Ma 314 -Md 1 -Ms 0 -Mt tcp -Is 0.0 -Id 2.0 -It tcp -Il 60 -If 0 -Ii 0 -Iv 30 -Pn tcp -Ps 0 -Pa 0 -Pf 1 -Po 0 
s -t 1.014836893 -Hs 1 -Hd -2 -Ni 1 -Nx 250.00 -Ny 400.00 -Nz 0.00 -Ne -1.000000 -Nl MAC -Nw --- -Ma 0 -Md 0 -Ms 0 -Mt ACK 
r -t 1.014851893 -Hs 1 -Hd 1 -Ni 1 -Nx 250.00 -Ny 400.00 -Nz 0.00 -Ne -1.000000 -Nl RTR -Nw --- -Ma 314 -Md 1 -Ms 0 -Mt tcp -Is 0.0 -Id 2.0 -It tcp -Il 60 -If 0 -Ii 0 -Iv 30 -Pn tcp -Ps 0 -Pa 0 -Pf 1 -Po 0 
f -t 1.014851893 -Hs 1 -Hd 2 -Ni 1 -Nx 250.00 -Ny 400.00 -Nz 0.00 -Ne -1.000000 -Nl RTR -Nw --- -Ma 314 -Md 1 -Ms 0 -Mt tcp -Is 0.0 -Id 2.0 -It tcp -Il 60 -If 0 -Ii 0 -Iv 29 -Pn tcp -Ps 0 -Pa 0 -Pf 1 -Po 0 
r -t 1.015141560 -Hs 0 -Hd -2 -Ni 0 -Nx 50.00 -Ny 400.00 -Nz 0.00 -Ne -1.000000 -Nl MAC -Nw --- -Ma 0 -Md 0 -Ms 0 -Mt ACK 
s -t 1.015670893 -Hs 1 -Hd -2 -Ni 1 -Nx 250.00 -Ny 400.00 -Nz 0.00 -Ne -1.000000 -Nl MAC -Nw --- -Ma 1534 -Md 2 -Ms 1 -Mt RTS 
r -t 1.016023560 -Hs 2 -Hd -2 -Ni 2 -Nx 450.00 -Ny 400.00 -Nz 0.00 -Ne -1.000000 -Nl MAC -Nw --- -Ma 1534 -Md 2 -Ms 1 -Mt RTS 
s -t 1.016033560 -Hs 2 -Hd -2 -Ni 2 -Nx 450.00 -Ny 400.00 -Nz 0.00 -Ne -1.000000 -Nl MAC -Nw --- -Ma 1220 -Md 1 -Ms 0 -Mt CTS 
r -t 1.016338227 -Hs 1 -Hd -2 -Ni 1 -Nx 250.00 -Ny 400.00 -Nz 0.00 -Ne -1.000000 -Nl MAC -Nw --- -Ma 1220 -Md 1 -Ms 0 -Mt CTS 
s -t 1.016348227 -Hs 1 -Hd 2 -Ni 1 -Nx 250.00 -Ny 400.00 -Nz 0.00 -Ne -1.000000 -Nl MAC -Nw --- -Ma 314 -Md 2 -Ms 1 -Mt tcp -Is 0.0 -Id 2.0 -It tcp -Il 112 -If 0 -Ii 0 -Iv 29 -Pn tcp -Ps 0 -Pa 0 -Pf 1 -Po 0 
r -t 1.017244893 -Hs 2 -Hd 2 -Ni 2 -Nx 450.00 -Ny 400.00 -Nz 0.00 -Ne -1.000000 -Nl MAC -Nw --- -Ma 314 -Md 2 -Ms 1 -Mt tcp -Is 0.0 -Id 2.0 -It tcp -Il 60 -If 0 -Ii 0 -Iv 29 -Pn tcp -Ps 0 -Pa 0 -Pf 2 -Po 0 
s -t 1.017254893 -Hs 2 -Hd -2 -Ni 2 -Nx 450.00 -Ny 400.00 -Nz 0.00 -Ne -1.000000 -Nl MAC -Nw --- -Ma 0 -Md 1 -Ms 0 -Mt ACK 
r -t 1.017269893 -Hs 2 -Hd 2 -Ni 2 -Nx 450.00 -Ny 400.00 -Nz 0.00 -Ne -1.000000 -Nl AGT -Nw --- -Ma 314 -Md 2 -Ms 1 -Mt tcp -Is 0.0 -Id 2.0 -It tcp -Il 60 -If 0 -Ii 0 -Iv 29 -Pn tcp -Ps 0 -Pa 0 -Pf 2 -Po 0 
s -t 1.017269893 -Hs 2 -Hd -2 -Ni 2 -Nx 450.00 -Ny 400.00 -Nz 0.00 -Ne -1.000000 -Nl AGT -Nw --- -Ma 0 -Md 0 -Ms 0 -Mt ack -Is 2.0 -Id 0.0 -It ack -Il 40 -If 0 -Ii 1 -Iv 32 -Pn tcp -Ps 0 -Pa 0 -Pf 0 -Po 0 
r -t 1.017269893 -Hs 2 -Hd -2 -Ni 2 -Nx 450.00 -Ny 400.00 -Nz 0.00 -Ne -1.000000 -Nl RTR -Nw --- -Ma 0 -Md 0 -Ms 0 -Mt ack -Is 2.0 -Id 0.0 -It ack -Il 40 -If 0 -Ii 1 -Iv 32 -Pn tcp -Ps 0 -Pa 0 -Pf 0 -Po 0 
s -t 1.017269893 -Hs 2 -Hd 1 -Ni 2 -Nx 450.00 -Ny 400.00 -Nz 0.00 -Ne -1.000000 -Nl RTR -Nw --- -Ma 0 -Md 0 -Ms 0 -Mt ack -Is 2.0 -Id 0.0 -It ack -Il 60 -If 0 -Ii 1 -Iv 30 -Pn tcp -Ps 0 -Pa 0 -Pf 0 -Po 0 
r -t 1.017559560 -Hs 1 -Hd -2 -Ni 1 -Nx 250.00 -Ny 400.00 -Nz 0.00 -Ne -1.000000 -Nl MAC -Nw --- -Ma 0 -Md 1 -Ms 0 -Mt ACK 
s -t 1.017928893 -Hs 2 -Hd -2 -Ni 2 -Nx 450.00 -Ny 400.00 -Nz 0.00 -Ne -1.000000 -Nl MAC -Nw --- -Ma 1534 -Md 1 -Ms 2 -Mt RTS 
r -t 1.018281560 -Hs 1 -Hd -2 -Ni 1 -Nx 250.00 -Ny 400.00 -Nz 0.00 -Ne -1.000000 -Nl MAC -Nw --- -Ma 1534 -Md 1 -Ms 2 -Mt RTS 
s -t 1.018291560 -Hs 1 -Hd -2 -Ni 1 -Nx 250.00 -Ny 400.00 -Nz 0.00 -Ne -1.000000 -Nl MAC -Nw --- -Ma 1220 -Md 2 -Ms 0 -Mt CTS 
r -t 1.018596227 -Hs 2 -Hd -2 -Ni 2 -Nx 450.00 -Ny 400.00 -Nz 0.00 -Ne -1.000000 -Nl MAC -Nw --- -Ma 1220 -Md 2 -Ms 0 -Mt CTS 
s -t 1.018606227 -Hs 2 -Hd 1 -Ni 2 -Nx 450.00 -Ny 400.00 -Nz 0.00 -Ne -1.000000 -Nl MAC -Nw --- -Ma 314 -Md 1 -Ms 2 -Mt ack -Is 2.0 -Id 0.0 -It ack -Il 112 -If 0 -Ii 1 -Iv 30 -Pn tcp -Ps 0 -Pa 0 -Pf 0 -Po 0 
r -t 1.019502893 -Hs 1 -Hd 1 -Ni 1 -Nx 250.00 -Ny 400.00 -Nz 0.00 -Ne -1.000000 -Nl MAC -Nw --- -Ma 314 -Md 1 -Ms 2 -Mt ack -Is 2.0 -Id 0.0 -It ack -Il 60 -If 0 -Ii 1 -Iv 30 -Pn tcp -Ps 0 -Pa 0 -Pf 1 -Po 0 
s -t 1.019512893 -Hs 1 -Hd -2 -Ni 1 -Nx 250.00 -Ny 400.00 -Nz 0.00 -Ne -1.000000 -Nl MAC -Nw --- -Ma 0 -Md 2 -Ms 0 -Mt ACK 
r -t 1.019527893 -Hs 1 -Hd 1 -Ni 1 -Nx 250.00 -Ny 400.00 -Nz 0.00 -Ne -1.000000 -Nl RTR -Nw --- -Ma 314 -Md 1 -Ms 2 -Mt ack -Is 2.0 -Id 0.0 -It ack -Il 60 -If 0 -Ii 1 -Iv 30 -Pn tcp -Ps 0 -Pa 0 -Pf 1 -Po 0 
f -t 1.019527893 -Hs 1 -Hd 0 -Ni 1 -Nx 250.00 -Ny 400.00 -Nz 0.00 -Ne -1.000000 -Nl RTR -Nw --- -Ma 314 -Md 1 -Ms 2 -Mt ack -Is 2.0 -Id 0.0 -It ack -Il 60 -If 0 -Ii 1 -Iv 29 -Pn tcp -Ps 0 -Pa 0 -Pf 1 -Po 0 
r -t 1.019817560 -Hs 2 -Hd -2 -Ni 2 -Nx 450.00 -Ny 400.00 -Nz 0.00 -Ne -1.000000 -Nl MAC -Nw --- -Ma 0 -Md 2 -Ms 0 -Mt ACK 
s -t 1.020086893 -Hs 1 -Hd -2 -Ni 1 -Nx 250.00 -Ny 400.00 -Nz 0.00 -Ne -1.000000 -Nl MAC -Nw --- -Ma 1534 -Md 0 -Ms 1 -Mt RTS 
r -t 1.020439560 -Hs 0 -Hd -2 -Ni 0 -Nx 50.00 -Ny 400.00 -Nz 0.00 -Ne -1.000000 -Nl MAC -Nw --- -Ma 1534 -Md 0 -Ms 1 -Mt RTS 
s -t 1.020449560 -Hs 0 -Hd -2 -Ni 0 -Nx 50.00 -Ny 400.00 -Nz 0.00 -Ne -1.000000 -Nl MAC -Nw --- -Ma 1220 -Md 1 -Ms 0 -Mt CTS 
r -t 1.020754227 -Hs 1 -Hd -2 -Ni 1 -Nx 250.00 -Ny 400.00 -Nz 0.00 -Ne -1.000000 -Nl MAC -Nw --- -Ma 1220 -Md 1 -Ms 0 -Mt CTS 
s -t 1.020764227 -Hs 1 -Hd 0 -Ni 1 -Nx 250.00 -Ny 400.00 -Nz 0.00 -Ne -1.000000 -Nl MAC -Nw --- -Ma 314 -Md 0 -Ms 1 -Mt ack -Is 2.0 -Id 0.0 -It ack -Il 112 -If 0 -Ii 1 -Iv 29 -Pn tcp -Ps 0 -Pa 0 -Pf 1 -Po 0 
r -t 1.021660893 -Hs 0 -Hd 0 -Ni 0 -Nx 50.00 -Ny 400.00 -Nz 0.00 -Ne -1.000000 -Nl MAC -Nw --- -Ma 314 -Md 0 -Ms 1 -Mt ack -Is 2.0 -Id 0.0 -It ack -Il 60 -If 0 -Ii 1 -Iv 29 -Pn tcp -Ps 0 -Pa 0 -Pf 2 -Po 0 
s -t 1.021670893 -Hs 0 -Hd -2 -Ni 0 -Nx 50.00 -Ny 400.00 -Nz 0.00 -Ne -1.000000 -Nl MAC -Nw --- -Ma 0 -Md 1 -Ms 0 -Mt ACK 
r -t 1.021685893 -Hs 0 -Hd 0 -Ni 0 -Nx 50.00 -Ny 400.00 -Nz 0.00 -Ne -1.000000 -Nl AGT -Nw --- -Ma 314 -Md 0 -Ms 1 -Mt ack -Is 2.0 -Id 0.0 -It ack -Il 60 -If 0 -Ii 1 -Iv 29 -Pn tcp -Ps 0 -Pa 0 -Pf 2 -Po 0 
r -t 1.021975560 -Hs 1 -Hd -2 -Ni 1 -Nx 250.00 -Ny 400.00 -Nz 0.00 -Ne -1.000000 -Nl MAC -Nw --- -Ma 0 -Md 1 -Ms 0 -Mt ACK 
s -t 1.050000000 -Hs 0 -Hd -2 -Ni 0 -Nx 50.00 -Ny 400.00 -Nz 0.00 -Ne -1.000000 -Nl AGT -Nw --- -Ma 0 -Md 0 -Ms 0 -Mt tcp -Is 0.0 -Id 2.0 -It tcp -Il 552 -If 0 -Ii 2 -Iv 32 -Pn tcp -Ps 1 -Pa 0 -Pf 0 -Po 0 
r -t 1.050000000 -Hs 0 -Hd -2 -Ni 0 -Nx 50.00 -Ny 400.00 -Nz 0.00 -Ne -1.000000 -Nl RTR -Nw --- -Ma 0 -Md 0 -Ms 0 -Mt tcp -Is 0.0 -Id 2.0 -It tcp -Il 552 -If 0 -Ii 2 -Iv 32 -Pn tcp -Ps 1 -Pa 0 -Pf 0 -Po 0 
s -t 1.050000000 -Hs 0 -Hd 1 -Ni 0 -Nx 50.00 -Ny 400.00 -Nz 0.00 -Ne -1.000000 -Nl RTR -Nw --- -Ma 0 -Md 0 -Ms 0 -Mt tcp -Is 0.0 -Id 2.0 -It tcp -Il 572 -If 0 -Ii 2 -Iv 30 -Pn tcp -Ps 1 -Pa 0 -Pf 0 -Po 0 
s -t 1.050515000 -Hs 0 -Hd -2 -Ni 0 -Nx 50.00 -Ny 400.00 -Nz 0.00 -Ne -1.000000 -Nl MAC -Nw --- -Ma 5630 -Md 1 -Ms 0 -Mt RTS 
r -t 1.050867667 -Hs 1 -Hd -2 -Ni 1 -Nx 250.00 -Ny 400.00 -Nz 0.00 -Ne -1.000000 -Nl MAC -Nw --- -Ma 5630 -Md 1 -Ms 0 -Mt RTS 
s -t 1.050877667 -Hs 1 -Hd -2 -Ni 1 -Nx 250.00 -Ny 400.00 -Nz 0.00 -Ne -1.000000 -Nl MAC -Nw --- -Ma 5316 -Md 0 -Ms 0 -Mt CTS 
r -t 1.051182333 -Hs 0 -Hd -2 -Ni 0 -Nx 50.00 -Ny 400.00 -Nz 0.00 -Ne -1.000000 -Nl MAC -Nw --- -Ma 5316 -Md 0 -Ms 0 -Mt CTS 
s -t 1.051192333 -Hs 0 -Hd 1 -Ni 0 -Nx 50.00 -Ny 400.00 -Nz 0.00 -Ne -1.000000 -Nl MAC -Nw --- -Ma 314 -Md 1 -Ms 0 -Mt tcp -Is 0.0 -Id 2.0 -It tcp -Il 624 -If 0 -Ii 2 -Iv 30 -Pn tcp -Ps 1 -Pa 0 -Pf 0 -Po 0 
r -t 1.056185000 -Hs 1 -Hd 1 -Ni 1 -Nx 250.00 -Ny 400.00 -Nz 0.00 -Ne -1.000000 -Nl MAC -Nw --- -Ma 314 -Md 1 -Ms 0 -Mt tcp -Is 0.0 -Id 2.0 -It tcp -Il 572 -If 0 -Ii 2 -Iv 30 -Pn tcp -Ps 1 -Pa 0 -Pf 1 -Po 0 
s -t 1.056195000 -Hs 1 -Hd -2 -Ni 1 -Nx 250.00 -Ny 400.00 -Nz 0.00 -Ne -1.000000 -Nl MAC -Nw --- -Ma 0 -Md 0 -Ms 0 -Mt ACK 
r -t 1.056210000 -Hs 1 -Hd 1 -Ni 1 -Nx 250.00 -Ny 400.00 -Nz 0.00 -Ne -1.000000 -Nl RTR -Nw --- -Ma 314 -Md 1 -Ms 0 -Mt tcp -Is 0.0 -Id 2.0 -It tcp -Il 572 -If 0 -Ii 2 -Iv 30 -Pn tcp -Ps 1 -Pa 0 -Pf 1 -Po 0 
f -t 1.056210000 -Hs 1 -Hd 2 -Ni 1 -Nx 250.00 -Ny 400.00 -Nz 0.00 -Ne -1.000000 -Nl RTR -Nw --- -Ma 314 -Md 1 -Ms 0 -Mt tcp -Is 0.0 -Id 2.0 -It tcp -Il 572 -If 0 -Ii 2 -Iv 29 -Pn tcp -Ps 1 -Pa 0 -Pf 1 -Po 0 
s -t 1.056445473 -Hs 0 -Hd -2 -Ni 0 -Nx 50.00 -Ny 400.00 -Nz 0.00 -Ne -1.000000 -Nl AGT -Nw --- -Ma 0 -Md 0 -Ms 0 -Mt tcp -Is 0.0 -Id 2.0 -It tcp -Il 552 -If 0 -Ii 3 -Iv 32 -Pn tcp -Ps 2 -Pa 0 -Pf 0 -Po 0 
r -t 1.056445473 -Hs 0 -Hd -2 -Ni 0 -Nx 50.00 -Ny 400.00 -Nz 0.00 -Ne -1.000000 -Nl RTR -Nw --- -Ma 0 -Md 0 -Ms 0 -Mt tcp -Is 0.0 -Id 2.0 -It tcp -Il 552 -If 0 -Ii 3 -Iv 32 -Pn tcp -Ps 2 -Pa 0 -Pf 0 -Po 0 
s -t 1.056445473 -Hs 0 -Hd 1 -Ni 0 -Nx 50.00 -Ny 400.00 -Nz 0.00 -Ne -1.000000 -Nl RTR -Nw --- -Ma 0 -Md 0 -Ms 0 -Mt tcp -Is 0.0 -Id 2.0 -It tcp -Il 572 -If 0 -Ii 3 -Iv 30 -Pn tcp -Ps 2 -Pa 0 -Pf 0 -Po 0 
r -t 1.056499667 -Hs 0 -Hd -2 -Ni 0 -Nx 50.00 -Ny 400.00 -Nz 0.00 -Ne -1.000000 -Nl MAC -Nw --- -Ma 0 -Md 0 -Ms 0 -Mt ACK 
s -t 1.056729000 -Hs 1 -Hd -2 -Ni 1 -Nx 250.00 -Ny 400.00 -Nz 0.00 -Ne -1.000000 -Nl MAC -Nw --- -Ma 5630 -Md 2 -Ms 1 -Mt RTS 
r -t 1.057081667 -Hs 2 -Hd -2 -Ni 2 -Nx 450.00 -Ny 400.00 -Nz 0.00 -Ne -1.000000 -Nl MAC -Nw --- -Ma 5630 -Md 2 -Ms 1 -Mt RTS 
s -t 1.057091667 -Hs 2 -Hd -2 -Ni 2 -Nx 450.00 -Ny 400.00 -Nz 0.00 -Ne -1.000000 -Nl MAC -Nw --- -Ma 5316 -Md 1 -Ms 0 -Mt CTS 
r -t 1.057396333 -Hs 1 -Hd -2 -Ni 1 -Nx 250.00 -Ny 400.00 -Nz 0.00 -Ne -1.000000 -Nl MAC -Nw --- -Ma 5316 -Md 1 -Ms 0 -Mt CTS 
s -t 1.057406333 -Hs 1 -Hd 2 -Ni 1 -Nx 250.00 -Ny 400.00 -Nz 0.00 -Ne -1.000000 -Nl MAC -Nw --- -Ma 314 -Md 2 -Ms 1 -Mt tcp -Is 0.0 -Id 2.0 -It tcp -Il 624 -If 0 -Ii 2 -Iv 29 -Pn tcp -Ps 1 -Pa 0 -Pf 1 -Po 0 
r -t 1.062399000 -Hs 2 -Hd 2 -Ni 2 -Nx 450.00 -Ny 400.00 -Nz 0.00 -Ne -1.000000 -Nl MAC -Nw --- -Ma 314 -Md 2 -Ms 1 -Mt tcp -Is 0.0 -Id 2.0 -It tcp -Il 572 -If 0 -Ii 2 -Iv 29 -Pn tcp -Ps 1 -Pa 0 -Pf 2 -Po 0 
s -t 1.062409000 -Hs 2 -Hd -2 -Ni 2 -Nx 450.00 -Ny 400.00 -Nz 0.00 -Ne -1.000000 -Nl MAC -Nw --- -Ma 0 -Md 1 -Ms 0 -Mt ACK 
r -t 1.062424000 -Hs 2 -Hd 2 -Ni 2 -Nx 450.00 -Ny 400.00 -Nz 0.00 -Ne -1.000000 -Nl AGT -Nw --- -Ma 314 -Md 2 -Ms 1 -Mt tcp -Is 0.0 -Id 2.0 -It tcp -Il 572 -If 0 -Ii 2 -Iv 29 -Pn tcp -Ps 1 -Pa 0 -Pf 2 -Po 0 
s -t 1.062424000 -Hs 2 -Hd -2 -Ni 2 -Nx 450.00 -Ny 400.00 -Nz 0.00 -Ne -1.000000 -Nl AGT -Nw --- -Ma 0 -Md 0 -Ms 0 -Mt ack -Is 2.0 -Id 0.0 -It ack -Il 40 -If 0 -Ii 4 -Iv 32 -Pn tcp -Ps 1 -Pa 0 -Pf 0 -Po 0 
r -t 1.062424000 -Hs 2 -Hd -2 -Ni 2 -Nx 450.00 -Ny 400.00 -Nz 0.00 -Ne -1.000000 -Nl RTR -Nw --- -Ma 0 -Md 0 -Ms 0 -Mt ack -Is 2.0 -Id 0.0 -It ack -Il 40 -If 0 -Ii 4 -Iv 32 -Pn tcp -Ps 1 -Pa 0 -Pf 0 -Po 0 
s -t 1.062424000 -Hs 2 -Hd 1 -Ni 2 -Nx 450.00 -Ny 400.00 -Nz 0.00 -Ne -1.000000 -Nl RTR -Nw --- -Ma 0 -Md 0 -Ms 0 -Mt ack -Is 2.0 -Id 0.0 -It ack -Il 60 -If 0 -Ii 4 -Iv 30 -Pn tcp -Ps 1 -Pa 0 -Pf 0 -Po 0 
r -t 1.062713667 -Hs 1 -Hd -2 -Ni 1 -Nx 250.00 -Ny 400.00 -Nz 0.00 -Ne -1.000000 -Nl MAC -Nw --- -Ma 0 -Md 1 -Ms 0 -Mt ACK 
s -t 1.063163000 -Hs 2 -Hd -2 -Ni 2 -Nx 450.00 -Ny 400.00 -Nz 0.00 -Ne -1.000000 -Nl MAC -Nw --- -Ma 1534 -Md 1 -Ms 2 -Mt RTS 
r -t 1.063515667 -Hs 1 -Hd -2 -Ni 1 -Nx 250.00 -Ny 400.00 -Nz 0.00 -Ne -1.000000 -Nl MAC -Nw --- -Ma 1534 -Md 1 -Ms 2 -Mt RTS 
s -t 1.063525667 -Hs 1 -Hd -2 -Ni 1 -Nx 250.00 -Ny 400.00 -Nz 0.00 -Ne -1.000000 -Nl MAC -Nw --- -Ma 1220 -Md 2 -Ms 0 -Mt CTS 
r -t 1.063830333 -Hs 2 -Hd -2 -Ni 2 -Nx 450.00 -Ny 400.00 -Nz 0.00 -Ne -1.000000 -Nl MAC -Nw --- -Ma 1220 -Md 2 -Ms 0 -Mt CTS 
s -t 1.063840333 -Hs 2 -Hd 1 -Ni 2 -Nx 450.00 -Ny 400.00 -Nz 0.00 -Ne -1.000000 -Nl MAC -Nw --- -Ma 314 -Md 1 -Ms 2 -Mt ack -Is 2.0 -Id 0.0 -It ack -Il 112 -If 0 -Ii 4 -Iv 30 -Pn tcp -Ps 1 -Pa 0 -Pf 0 -Po 0 
r -t 1.064737000 -Hs 1 -Hd 1 -Ni 1 -Nx 250.00 -Ny 400.00 -Nz 0.00 -Ne -1.000000 -Nl MAC -Nw --- -Ma 314 -Md 1 -Ms 2 -Mt ack -Is 2.0 -Id 0.0 -It ack -Il 60 -If 0 -Ii 4 -Iv 30 -Pn tcp -Ps 1 -Pa 0 -Pf 1 -Po 0 
s -t 1.064747000 -Hs 1 -Hd -2 -Ni 1 -Nx 250.00 -Ny 400.00 -Nz 0.00 -Ne -1.000000 -Nl MAC -Nw --- -Ma 0 -Md 2 -Ms 0 -Mt ACK 
r -t 1.064762000 -Hs 1 -Hd 1 -Ni 1 -Nx 250.00 -Ny 400.00 -Nz 0.00 -Ne -1.000000 -Nl RTR -Nw --- -Ma 314 -Md 1 -Ms 2 -Mt ack -Is 2.0 -Id 0.0 -It ack -Il 60 -If 0 -Ii 4 -Iv 30 -Pn tcp -Ps 1 -Pa 0 -Pf 1 -Po 0 
f -t 1.064762000 -Hs 1 -Hd 0 -Ni 1 -Nx 250.00 -Ny 400.00 -Nz 0.00 -Ne -1.000000 -Nl RTR -Nw --- -Ma 314 -Md 1 -Ms 2 -Mt ack -Is 2.0 -Id 0.0 -It ack -Il 60 -If 0 -Ii 4 -Iv 29 -Pn tcp -Ps 1 -Pa 0 -Pf 1 -Po 0 
r -t 1.065051667 -Hs 2 -Hd -2 -Ni 2 -Nx 450.00 -Ny 400.00 -Nz 0.00 -Ne -1.000000 -Nl MAC -Nw --- -Ma 0 -Md 2 -Ms 0 -Mt ACK 
s -t 1.065261000 -Hs 1 -Hd -2 -Ni 1 -Nx 250.00 -Ny 400.00 -Nz 0.00 -Ne -1.000000 -Nl MAC -Nw --- -Ma 1534 -Md 0 -Ms 1 -Mt RTS 
r -t 1.065613667 -Hs 0 -Hd -2 -Ni 0 -Nx 50.00 -Ny 400.00 -Nz 0.00 -Ne -1.000000 -Nl MAC -Nw --- -Ma 1534 -Md 0 -Ms 1 -Mt RTS 
s -t 1.065623667 -Hs 0 -Hd -2 -Ni 0 -Nx 50.00 -Ny 400.00 -Nz 0.00 -Ne -1.000000 -Nl MAC -Nw --- -Ma 1220 -Md 1 -Ms 0 -Mt CTS 
r -t 1.065928333 -Hs 1 -Hd -2 -Ni 1 -Nx 250.00 -Ny 400.00 -Nz 0.00 -Ne -1.000000 -Nl MAC -Nw --- -Ma 1220 -Md 1 -Ms 0 -Mt CTS 
s -t 1.065938333 -Hs 1 -Hd 0 -Ni 1 -Nx 250.00 -Ny 400.00 -Nz 0.00 -Ne -1.000000 -Nl MAC -Nw --- -Ma 314 -Md 0 -Ms 1 -Mt ack -Is 2.0 -Id 0.0 -It ack -Il 112 -If 0 -Ii 4 -Iv 29 -Pn tcp -Ps 1 -Pa 0 -Pf 1 -Po 0 
r -t 1.066835000 -Hs 0 -Hd 0 -Ni 0 -Nx 50.00 -Ny 400.00 -Nz 0.00 -Ne -1.000000 -Nl MAC -Nw --- -Ma 314 -Md 0 -Ms 1 -Mt ack -Is 2.0 -Id 0.0 -It ack -Il 60 -If 0 -Ii 4 -Iv 29 -Pn tcp -Ps 1 -Pa 0 -Pf 2 -Po 0 
s -t 1.066845000 -Hs 0 -Hd -2 -Ni 0 -Nx 50.00 -Ny 400.00 -Nz 0.00 -Ne -1.000000 -Nl MAC -Nw --- -Ma 0 -Md 1 -Ms 0 -Mt ACK 
r -t 1.066860000 -Hs 0 -Hd 0 -Ni 0 -Nx 50.00 -Ny 400.00 -Nz 0.00 -Ne -1.000000 -Nl AGT -Nw --- -Ma 314 -Md 0 -Ms 1 -Mt ack -Is 2.0 -Id 0.0 -It ack -Il 60 -If 0 -Ii 4 -Iv 29 -Pn tcp -Ps 1 -Pa 0 -Pf 2 -Po 0 
r -t 1.067149667 -Hs 1 -Hd -2 -Ni 1 -Nx 250.00 -Ny 400.00 -Nz 0.00 -Ne -1.000000 -Nl MAC -Nw --- -Ma 0 -Md 1 -Ms 0 -Mt ACK 
s -t 1.067499000 -Hs 0 -Hd -2 -Ni 0 -Nx 50.00 -Ny 400.00 -Nz 0.00 -Ne -1.000000 -Nl MAC -Nw --- -Ma 5630 -Md 1 -Ms 0 -Mt RTS 
r -t 1.067851667 -Hs 1 -Hd -2 -Ni 1 -Nx 250.00 -Ny 400.00 -Nz 0.00 -Ne -1.000000 -Nl MAC -Nw --- -Ma 5630 -Md 1 -Ms 0 -Mt RTS 
s -t 1.067861667 -Hs 1 -Hd -2 -Ni 1 -Nx 250.00 -Ny 400.00 -Nz 0.00 -Ne -1.000000 -Nl MAC -Nw --- -Ma 5316 -Md 0 -Ms 0 -Mt CTS 
r -t 1.068166333 -Hs 0 -Hd -2 -Ni 0 -Nx 50.00 -Ny 400.00 -Nz 0.00 -Ne -1.000000 -Nl MAC -Nw --- -Ma 5316 -Md 0 -Ms 0 -Mt CTS 
s -t 1.068176333 -Hs 0 -Hd 1 -Ni 0 -Nx 50.00 -Ny 400.00 -Nz 0.00 -Ne -1.000000 -Nl MAC -Nw --- -Ma 314 -Md 1 -Ms 0 -Mt tcp -Is 0.0 -Id 2.0 -It tcp -Il 624 -If 0 -Ii 3 -Iv 30 -Pn tcp -Ps 2 -Pa 0 -Pf 0 -Po 0 
s -t 1.069336420 -Hs 0 -Hd -2 -Ni 0 -Nx 50.00 -Ny 400.00 -Nz 0.00 -Ne -1.000000 -Nl AGT -Nw --- -Ma 0 -Md 0 -Ms 0 -Mt tcp -Is 0.0 -Id 2.0 -It tcp -Il 552 -If 0 -Ii 5 -Iv 32 -Pn tcp -Ps 3 -Pa 0 -Pf 0 -Po 0 
r -t 1.069336420 -Hs 0 -Hd -2 -Ni 0 -Nx 50.00 -Ny 400.00 -Nz 0.00 -Ne -1.000000 -Nl RTR -Nw --- -Ma 0 -Md 0 -Ms 0 -Mt tcp -Is 0.0 -Id 2.0 -It tcp -Il 552 -If 0 -Ii 5 -Iv 32 -Pn tcp -Ps 3 -Pa 0 -Pf 0 -Po 0 
s -t 1.069336420 -Hs 0 -Hd 1 -Ni 0 -Nx 50.00 -Ny 400.00 -Nz 0.00 -Ne -1.000000 -Nl RTR -Nw --- -Ma 0 -Md 0 -Ms 0 -Mt tcp -Is 0.0 -Id 2.0 -It tcp -Il 572 -If 0 -Ii 5 -Iv 30 -Pn tcp -Ps 3 -Pa 0 -Pf 0 -Po 0 
r -t 1.073169000 -Hs 1 -Hd 1 -Ni 1 -Nx 250.00 -Ny 400.00 -Nz 0.00 -Ne -1.000000 -Nl MAC -Nw --- -Ma 314 -Md 1 -Ms 0 -Mt tcp -Is 0.0 -Id 2.0 -It tcp -Il 572 -If 0 -Ii 3 -Iv 30 -Pn tcp -Ps 2 -Pa 0 -Pf 1 -Po 0 
s -t 1.073179000 -Hs 1 -Hd -2 -Ni 1 -Nx 250.00 -Ny 400.00 -Nz 0.00 -Ne -1.000000 -Nl MAC -Nw --- -Ma 0 -Md 0 -Ms 0 -Mt ACK 
r -t 1.073194000 -Hs 1 -Hd 1 -Ni 1 -Nx 250.00 -Ny 400.00 -Nz 0.00 -Ne -1.000000 -Nl RTR -Nw --- -Ma 314 -Md 1 -Ms 0 -Mt tcp -Is 0.0 -Id 2.0 -It tcp -Il 572 -If 0 -Ii 3 -Iv 30 -Pn tcp -Ps 2 -Pa 0 -Pf 1 -Po 0 
f -t 1.073194000 -Hs 1 -Hd 2 -Ni 1 -Nx 250.00 -Ny 400.00 -Nz 0.00 -Ne -1.000000 -Nl RTR -Nw --- -Ma 314 -Md 1 -Ms 0 -Mt tcp -Is 0.0 -Id 2.0 -It tcp -Il 572 -If 0 -Ii 3 -Iv 29 -Pn tcp -Ps 2 -Pa 0 -Pf 1 -Po 0 
r -t 1.073483667 -Hs 0 -Hd -2 -Ni 0 -Nx 50.00 -Ny 400.00 -Nz 0.00 -Ne -1.000000 -Nl MAC -Nw --- -Ma 0 -Md 0 -Ms 0 -Mt ACK 
s -t 1.073833000 -Hs 1 -Hd -2 -Ni 1 -Nx 250.00 -Ny 400.00 -Nz 0.00 -Ne -1.000000 -Nl MAC -Nw --- -Ma 5630 -Md 2 -Ms 1 -Mt RTS 
r -t 1.074185667 -Hs 2 -Hd -2 -Ni 2 -Nx 450.00 -Ny 400.00 -Nz 0.00 -Ne -1.000000 -Nl MAC -Nw --- -Ma 5630 -Md 2 -Ms 1 -Mt RTS 
s -t 1.074195667 -Hs 2 -Hd -2 -Ni 2 -Nx 450.00 -Ny 400.00 -Nz 0.00 -Ne -1.000000 -Nl MAC -Nw --- -Ma 5316 -Md 1 -Ms 0 -Mt CTS 
r -t 1.074500333 -Hs 1 -Hd -2 -Ni 1 -Nx 250.00 -Ny 400.00 -Nz 0.00 -Ne -1.000000 -Nl MAC -Nw --- -Ma 5316 -Md 1 -Ms 0 -Mt CTS 
s -t 1.074510333 -Hs 1 -Hd 2 -Ni 1 -Nx 250.00 -Ny 400.00 -Nz 0.00 -Ne -1.000000 -Nl MAC -Nw --- -Ma 314 -Md 2 -Ms 1 -Mt tcp -Is 0.0 -Id 2.0 -It tcp -Il 624 -If 0 -Ii 3 -Iv 29 -Pn tcp -Ps 2 -Pa 0 -Pf 1 -Po 0 
s -t 1.076676254 -Hs 0 -Hd -2 -Ni 0 -Nx 50.00 -Ny 400.00 -Nz 0.00 -Ne -1.000000 -Nl AGT -Nw --- -Ma 0 -Md 0 -Ms 0 -Mt tcp -Is 0.0 -Id 2.0 -It tcp -Il 552 -If 0 -Ii 6 -Iv 32 -Pn tcp -Ps 4 -Pa 0 -Pf 0 -Po 0 
r -t 1.076676254 -Hs 0 -Hd -2 -Ni 0 -Nx 50.00 -Ny 400.00 -Nz 0.00 -Ne -1.000000 -Nl RTR -Nw --- -Ma 0 -Md 0 -Ms 0 -Mt tcp -Is 0.0 -Id 2.0 -It tcp -Il 552 -If 0 -Ii 6 -Iv 32 -Pn tcp -Ps 4 -Pa 0 -Pf 0 -Po 0 
s -t 1.076676254 -Hs 0 -Hd 1 -Ni 0 -Nx 50.00 -Ny 400.00 -Nz 0.00 -Ne -1.000000 -Nl RTR -Nw --- -Ma 0 -Md 0 -Ms 0 -Mt tcp -Is 0.0 -Id 2.0 -It tcp -Il 572 -If 0 -Ii 6 -Iv 30 -Pn tcp -Ps 4 -Pa 0 -Pf 0 -Po 0 
r -t 1.079503000 -Hs 2 -Hd 2 -Ni 2 -Nx 450.00 -Ny 400.00 -Nz 0.00 -Ne -1.000000 -Nl MAC -Nw --- -Ma 314 -Md 2 -Ms 1 -Mt tcp -Is 0.0 -Id 2.0 -It tcp -Il 572 -If 0 -Ii 3 -Iv 29 -Pn tcp -Ps 2 -Pa 0 -Pf 2 -Po 0 
s -t 1.079513000 -Hs 2 -Hd -2 -Ni 2 -Nx 450.00 -Ny 400.00 -Nz 0.00 -Ne -1.000000 -Nl MAC -Nw --- -Ma 0 -Md 1 -Ms 0 -Mt ACK 
r -t 1.079528000 -Hs 2 -Hd 2 -Ni 2 -Nx 450.00 -Ny 400.00 -Nz 0.00 -Ne -1.000000 -Nl AGT -Nw --- -Ma 314 -Md 2 -Ms 1 -Mt tcp -Is 0.0 -Id 2.0 -It tcp -Il 572 -If 0 -Ii 3 -Iv 29 -Pn tcp -Ps 2 -Pa 0 -Pf 2 -Po 0 
s -t 1.079528000 -Hs 2 -Hd -2 -Ni 2 -Nx 450.00 -Ny 400.00 -Nz 0.00 -Ne -1.000000 -Nl AGT -Nw --- -Ma 0 -Md 0 -Ms 0 -Mt ack -Is 2.0 -Id 0.0 -It ack -Il 40 -If 0 -Ii 7 -Iv 32 -Pn tcp -Ps 2 -Pa 0 -Pf 0 -Po 0 
r -t 1.079528000 -Hs 2 -Hd -2 -Ni 2 -Nx 450.00 -Ny 400.00 -Nz 0.00 -Ne -1.000000 -Nl RTR -Nw --- -Ma 0 -Md 0 -Ms 0 -Mt ack -Is 2.0 -Id 0.0 -It ack -Il 40 -If 0 -Ii 7 -Iv 32 -Pn tcp -Ps 2 -Pa 0 -Pf 0 -Po 0 
s -t 1.079528000 -Hs 2 -Hd 1 -Ni 2 -Nx 450.00 -Ny 400.00 -Nz 0.00 -Ne -1.000000 -Nl RTR -Nw --- -Ma 0 -Md 0 -Ms 0 -Mt ack -Is 2.0 -Id 0.0 -It ack -Il 60 -If 0 -Ii 7 -Iv 30 -Pn tcp -Ps 2 -Pa 0 -Pf 0 -Po 0 
r -t 1.079817667 -Hs 1 -Hd -2 -Ni 1 -Nx 250.00 -Ny 400.00 -Nz 0.00 -Ne -1.000000 -Nl MAC -Nw --- -Ma 0 -Md 1 -Ms 0 -Mt ACK 
s -t 1.080007000 -Hs 2 -Hd -2 -Ni 2 -Nx 450.00 -Ny 400.00 -Nz 0.00 -Ne -1.000000 -Nl MAC -Nw --- -Ma 1534 -Md 1 -Ms 2 -Mt RTS 
r -t 1.080359667 -Hs 1 -Hd -2 -Ni 1 -Nx 250.00 -Ny 400.00 -Nz 0.00 -Ne -1.000000 -Nl MAC -Nw --- -Ma 1534 -Md 1 -Ms 2 -Mt RTS 
s -t 1.080369667 -Hs 1 -Hd -2 -Ni 1 -Nx 250.00 -Ny 400.00 -Nz 0.00 -Ne -1.000000 -Nl MAC -Nw --- -Ma 1220 -Md 2 -Ms 0 -Mt CTS 
r -t 1.080674333 -Hs 2 -Hd -2 -Ni 2 -Nx 450.00 -Ny 400.00 -Nz 0.00 -Ne -1.000000 -Nl MAC -Nw --- -Ma 1220 -Md 2 -Ms 0 -Mt CTS 
s -t 1.080684333 -Hs 2 -Hd 1 -Ni 2 -Nx 450.00 -Ny 400.00 -Nz 0.00 -Ne -1.000000 -Nl MAC -Nw --- -Ma 314 -Md 1 -Ms 2 -Mt ack -Is 2.0 -Id 0.0 -It ack -Il 112 -If 0 -Ii 7 -Iv 30 -Pn tcp -Ps 2 -Pa 0 -Pf 0 -Po 0 
r -t 1.081581000 -Hs 1 -Hd 1 -Ni 1 -Nx 250.00 -Ny 400.00 -Nz 0.00 -Ne -1.000000 -Nl MAC -Nw --- -Ma 314 -Md 1 -Ms 2 -Mt ack -Is 2.0 -Id 0.0 -It ack -Il 60 -If 0 -Ii 7 -Iv 30 -Pn tcp -Ps 2 -Pa 0 -Pf 1 -Po 0 
s -t 1.081591000 -Hs 1 -Hd -2 -Ni 1 -Nx 250.00 -Ny 400.00 -Nz 0.00 -Ne -1.000000 -Nl MAC -Nw --- -Ma 0 -Md 2 -Ms 0 -Mt ACK 